 Output coordinates in angstroms (scale by  1.889725989 to convert to a.u.)

  No.       Tag          Charge          X              Y              Z
 ---- ---------------- ---------- -------------- -------------- --------------
    1 N                    7.0000     0.00000000     0.00000000    -0.54904500
    2 N                    7.0000     0.00000000     0.00000000     0.54904500

         Total SCF energy =   -108.954074084437

 Vector    2  Occ=2.000000D+00  E=-1.568317D+01

 Vector    3  Occ=2.000000D+00  E=-1.470906D+00

 Vector    4  Occ=2.000000D+00  E=-7.742302D-01

 Vector    5  Occ=2.000000D+00  E=-6.261921D-01

 Vector    6  Occ=2.000000D+00  E=-6.079852D-01

 Vector    7  Occ=2.000000D+00  E=-6.079852D-01

 Vector    8  Occ=0.000000D+00  E= 1.754404D-01

 Vector    9  Occ=0.000000D+00  E= 1.754404D-01

 Vector   10  Occ=0.000000D+00  E= 5.945051D-01

 Vector   11  Occ=0.000000D+00  E= 8.202363D-01

 Vector   12  Occ=0.000000D+00  E= 8.723306D-01

 Vector   13  Occ=0.000000D+00  E= 8.723306D-01

 Vector   14  Occ=0.000000D+00  E= 9.921950D-01

 Vector   15  Occ=0.000000D+00  E= 1.050948D+00

 Vector   16  Occ=0.000000D+00  E= 1.050948D+00

 Vector   17  Occ=0.000000D+00  E= 1.143780D+00

       Multipole analysis of the density wrt the origin
       ------------------------------------------------

     L   x y z        total         open         nuclear
     -   - - -        -----         ----         -------
     0   0 0 0     -0.000000      0.000000     14.000000

     1   1 0 0     -0.000000      0.000000      0.000000
     1   0 1 0     -0.000000      0.000000      0.000000
     1   0 0 1     -0.000000      0.000000      0.000000

     2   2 0 0     -7.540493      0.000000      0.000000
     2   1 1 0     -0.000000      0.000000      0.000000
     2   1 0 1     -0.000000      0.000000      0.000000
     2   0 2 0     -7.540493      0.000000      0.000000
     2   0 1 1     -0.000000      0.000000      0.000000

          Total MP2 energy          -109.260488606805
 Total times  cpu:        0.8s     wall:        1.1s
