 Output coordinates in a.u. (scale by  1.000000000 to convert to a.u.)

  No.       Tag          Charge          X              Y              Z
 ---- ---------------- ---------- -------------- -------------- --------------
    1 N                    7.0000     0.00000000     0.00000000    -1.05900000
    2 N                    7.0000     0.00000000     0.00000000     1.05900000

         Total SCF energy =   -108.949377878885

 Vector    2  Occ=2.000000D+00  E=-1.569073D+01

 Vector    3  Occ=2.000000D+00  E=-1.454249D+00

 Vector    4  Occ=2.000000D+00  E=-7.815456D-01

 Vector    5  Occ=2.000000D+00  E=-6.241666D-01

 Vector    6  Occ=2.000000D+00  E=-5.985346D-01

 Vector    7  Occ=2.000000D+00  E=-5.985346D-01

 Vector    8  Occ=0.000000D+00  E= 1.635585D-01

 Vector    9  Occ=0.000000D+00  E= 1.635585D-01

 Vector   10  Occ=0.000000D+00  E= 5.866801D-01

 Vector   11  Occ=0.000000D+00  E= 8.287526D-01

 Vector   12  Occ=0.000000D+00  E= 8.785727D-01

 Vector   13  Occ=0.000000D+00  E= 8.785727D-01

 Vector   14  Occ=0.000000D+00  E= 9.896248D-01

 Vector   15  Occ=0.000000D+00  E= 1.045916D+00

 Vector   16  Occ=0.000000D+00  E= 1.045916D+00

 Vector   17  Occ=0.000000D+00  E= 1.109574D+00

       Multipole analysis of the density wrt the origin
       ------------------------------------------------

     L   x y z        total         open         nuclear
     -   - - -        -----         ----         -------
     0   0 0 0     -0.000000      0.000000     14.000000

     1   1 0 0      0.000000      0.000000      0.000000
     1   0 1 0      0.000000      0.000000      0.000000
     1   0 0 1     -0.000000      0.000000      0.000000

     2   2 0 0     -7.598757      0.000000      0.000000
     2   1 1 0     -0.000000      0.000000      0.000000
     2   1 0 1     -0.000000      0.000000      0.000000
     2   0 2 0     -7.598757      0.000000      0.000000
     2   0 1 1     -0.000000      0.000000      0.000000

          Total MP2 energy          -109.262762938959
 Total times  cpu:        0.8s     wall:        1.1s
