 Output coordinates in a.u. (scale by  1.000000000 to convert to a.u.)

  No.       Tag          Charge          X              Y              Z
 ---- ---------------- ---------- -------------- -------------- --------------
    1 O                    8.0000     0.00000000     0.00000000     0.22214949
    2 H                    1.0000     0.00000000    -1.42745154    -0.88859795
    3 H                    1.0000     0.00000000     1.42745154    -0.88859795

         Total SCF energy =    -76.026804758123

 Vector    2  Occ=2.000000D+00  E=-1.336986D+00

 Vector    3  Occ=2.000000D+00  E=-6.988163D-01

 Vector    4  Occ=2.000000D+00  E=-5.671892D-01

 Vector    5  Occ=2.000000D+00  E=-4.932609D-01

 Vector    6  Occ=0.000000D+00  E= 1.855322D-01

 Vector    7  Occ=0.000000D+00  E= 2.563066D-01

 Vector    8  Occ=0.000000D+00  E= 7.884182D-01

 Vector    9  Occ=0.000000D+00  E= 8.557687D-01

 Vector   10  Occ=0.000000D+00  E= 1.163726D+00

 Vector   11  Occ=0.000000D+00  E= 1.200311D+00

 Vector   12  Occ=0.000000D+00  E= 1.253594D+00

 Vector   13  Occ=0.000000D+00  E= 1.441930D+00

 Vector   14  Occ=0.000000D+00  E= 1.477246D+00

 Vector   15  Occ=0.000000D+00  E= 1.673089D+00

       Multipole analysis of the density wrt the origin
       ------------------------------------------------

     L   x y z        total         open         nuclear
     -   - - -        -----         ----         -------
     0   0 0 0     -0.000000      0.000000     10.000000

     1   1 0 0     -0.000000      0.000000      0.000000
     1   0 1 0     -0.000000      0.000000      0.000000
     1   0 0 1     -0.810707      0.000000      0.000000

     2   2 0 0     -5.228675      0.000000      0.000000
     2   1 1 0      0.000000      0.000000      0.000000
     2   1 0 1     -0.000000      0.000000      0.000000
     2   0 2 0     -3.073862      0.000000      4.075236
     2   0 1 1     -0.000000      0.000000      0.000000

          Total MP2 energy           -76.228449933544
 Total times  cpu:        0.5s     wall:        2.6s
